
     Program PWSCF v.7.3.1 starts on 23Sep2024 at 15:50: 6 

     This program is part of the open-source Quantum ESPRESSO suite
     for quantum simulation of materials; please cite
         "P. Giannozzi et al., J. Phys.:Condens. Matter 21 395502 (2009);
         "P. Giannozzi et al., J. Phys.:Condens. Matter 29 465901 (2017);
         "P. Giannozzi et al., J. Chem. Phys. 152 154105 (2020);
          URL http://www.quantum-espresso.org", 
     in publications or presentations arising from this work. More details at
     http://www.quantum-espresso.org/quote

     Parallel version (MPI), running on     4 processors

     MPI processes distributed on     1 nodes
     0 MiB available memory on the printing compute node when the environment starts

     Waiting for input...
     Reading input from standard input

     Current dimensions of program PWSCF are:
     Max number of different atomic species (ntypx) = 10
     Max number of k-points (npk) =  40000
     Max angular momentum in pseudopotentials (lmaxx) =  4
     Found identity + (  0.0000 -0.5000 -0.5000) symmetry
     This is a supercell, fractional translations are disabled
     Message from routine setup:
     using ibrav=0 with symmetry is DISCOURAGED, use correct ibrav instead

     R & G space division:  proc/nbgrp/npool/nimage =       4
     Subspace diagonalization in iterative solution of the eigenvalue problem:
     a serial algorithm will be used


     Parallelization info
     --------------------
     sticks:   dense  smooth     PW     G-vecs:    dense   smooth      PW
     Min         721     362    105                29169    10336    1653
     Max         722     363    106                29172    10339    1658
     Sum        2885    1449    421               116681    41347    6619

     Using Slab Decomposition



     bravais-lattice index     =            0
     lattice parameter (alat)  =      10.6463  a.u.
     unit-cell volume          =    1206.7043 (a.u.)^3
     number of atoms/cell      =            8
     number of atomic types    =            2
     number of electrons       =        64.00
     number of Kohn-Sham states=           32
     kinetic-energy cutoff     =      40.0000  Ry
     charge density cutoff     =     320.0000  Ry
     scf convergence threshold =      1.0E-06
     mixing beta               =       0.7000
     number of iterations used =            8  plain     mixing
     Exchange-correlation=  SLA  PW   PBX  PBC
                           (   1   4   3   4   0   0   0)

     celldm(1)=  10.646339  celldm(2)=   0.000000  celldm(3)=   0.000000
     celldm(4)=   0.000000  celldm(5)=   0.000000  celldm(6)=   0.000000

     crystal axes: (cart. coord. in units of alat)
               a(1) = (   1.000000   0.000000   0.000000 )  
               a(2) = (  -0.000000   1.000000   0.000000 )  
               a(3) = (   0.000000   0.000000   1.000000 )  

     reciprocal axes: (cart. coord. in units 2 pi/alat)
               b(1) = (  1.000000  0.000000 -0.000000 )  
               b(2) = (  0.000000  1.000000  0.000000 )  
               b(3) = ( -0.000000 -0.000000  1.000000 )  


     PseudoPot. # 1 for Na read from file:
     pseudos/SSSP_1.3.0_PBE_efficiency/Na_pbe_v1.5.uspp.F.UPF
     MD5 check sum: 44600605ef58000f06b90626533354dc
     Pseudo is Ultrasoft, Zval =  9.0
     Generated by new atomic code, or converted to UPF format
     Using radial grid of  819 points,  5 beta functions with: 
                l(1) =   0
                l(2) =   0
                l(3) =   1
                l(4) =   1
                l(5) =   2
     Q(r) pseudized with  8 coefficients,  rinner =    1.250   1.250   1.250
                                                       1.250   1.250

     PseudoPot. # 2 for Cl read from file:
     pseudos/SSSP_1.3.0_PBE_efficiency/Cl_pbe_v1.4.uspp.F.UPF
     MD5 check sum: fc6f6913ecf08c9257cb748ef0700058
     Pseudo is Ultrasoft + core correction, Zval =  7.0
     Generated by new atomic code, or converted to UPF format
     Using radial grid of  909 points,  6 beta functions with: 
                l(1) =   0
                l(2) =   0
                l(3) =   1
                l(4) =   1
                l(5) =   2
                l(6) =   2
     Q(r) pseudized with  8 coefficients,  rinner =    1.300   1.300   1.300
                                                       1.300   1.300

     atomic species   valence    mass     pseudopotential
     Na                9.00    22.98977     Na( 1.00)
     Cl                7.00    35.45300     Cl( 1.00)

     48 Sym. Ops., with inversion, found



   Cartesian axes

     site n.     atom                  positions (alat units)
         1        Na     tau(   1) = (   0.0000000   0.0000000   0.0000000  )
         2        Na     tau(   2) = (  -0.0000000   0.5000000   0.5000000  )
         3        Na     tau(   3) = (   0.5000000   0.0000000   0.5000000  )
         4        Na     tau(   4) = (   0.5000000   0.5000000   0.0000000  )
         5        Cl     tau(   5) = (   0.5000000   0.5000000   0.5000000  )
         6        Cl     tau(   6) = (   0.5000000   0.0000000   0.0000000  )
         7        Cl     tau(   7) = (  -0.0000000   0.5000000   0.0000000  )
         8        Cl     tau(   8) = (   0.0000000   0.0000000   0.5000000  )

     number of k points=    10
                       cart. coord. in units 2pi/alat
        k(    1) = (   0.0000000   0.0000000   0.0000000), wk =   0.0312500
        k(    2) = (  -0.0000000  -0.0000000   0.2500000), wk =   0.1875000
        k(    3) = (   0.0000000   0.0000000  -0.5000000), wk =   0.0937500
        k(    4) = (  -0.0000000   0.2500000   0.2500000), wk =   0.3750000
        k(    5) = (   0.0000000   0.2500000  -0.5000000), wk =   0.3750000
        k(    6) = (   0.0000000  -0.5000000  -0.5000000), wk =   0.0937500
        k(    7) = (   0.2500000   0.2500000   0.2500000), wk =   0.2500000
        k(    8) = (   0.2500000   0.2500000  -0.5000000), wk =   0.3750000
        k(    9) = (   0.2500000  -0.5000000  -0.5000000), wk =   0.1875000
        k(   10) = (  -0.5000000  -0.5000000  -0.5000000), wk =   0.0312500

     Dense  grid:   116681 G-vectors     FFT dimensions: (  64,  64,  64)

     Smooth grid:    41347 G-vectors     FFT dimensions: (  45,  45,  45)

     Estimated max dynamical RAM per process >     114.17 MB

     Estimated total dynamical RAM >     456.69 MB

     Initial potential from superposition of free atoms

     starting charge      63.9748, renormalised to      64.0000

     negative rho (up, down):  5.673E-02 0.000E+00
     Starting wfcs are   36 randomized atomic wfcs

     total cpu time spent up to now is        0.5 secs

     Self-consistent Calculation

     iteration #  1     ecut=    40.00 Ry     beta= 0.70
     Davidson diagonalization with overlap
     ethr =  1.00E-02,  avg # of iterations =  1.0

     Threshold (ethr) on eigenvalues was too large:
     Diagonalizing with lowered threshold

     Davidson diagonalization with overlap
     ethr =  3.74E-04,  avg # of iterations =  1.8

     negative rho (up, down):  5.869E-02 0.000E+00

     total cpu time spent up to now is        1.5 secs

     total energy              =    -515.54229568 Ry
     estimated scf accuracy    <       0.21289252 Ry

     iteration #  2     ecut=    40.00 Ry     beta= 0.70
     Davidson diagonalization with overlap
     ethr =  3.33E-04,  avg # of iterations =  2.0

     negative rho (up, down):  5.642E-02 0.000E+00

     total cpu time spent up to now is        2.1 secs

     total energy              =    -515.60569850 Ry
     estimated scf accuracy    <       0.04583209 Ry

     iteration #  3     ecut=    40.00 Ry     beta= 0.70
     Davidson diagonalization with overlap
     ethr =  7.16E-05,  avg # of iterations =  2.0

     negative rho (up, down):  5.496E-02 0.000E+00

     total cpu time spent up to now is        2.8 secs

     total energy              =    -515.61314762 Ry
     estimated scf accuracy    <       0.00113473 Ry

     iteration #  4     ecut=    40.00 Ry     beta= 0.70
     Davidson diagonalization with overlap
     ethr =  1.77E-06,  avg # of iterations =  3.0

     negative rho (up, down):  5.517E-02 0.000E+00

     total cpu time spent up to now is        3.4 secs

     total energy              =    -515.61356346 Ry
     estimated scf accuracy    <       0.00038902 Ry

     iteration #  5     ecut=    40.00 Ry     beta= 0.70
     Davidson diagonalization with overlap
     ethr =  6.08E-07,  avg # of iterations =  2.0

     negative rho (up, down):  5.532E-02 0.000E+00

     total cpu time spent up to now is        4.0 secs

     total energy              =    -515.61356610 Ry
     estimated scf accuracy    <       0.00005810 Ry

     iteration #  6     ecut=    40.00 Ry     beta= 0.70
     Davidson diagonalization with overlap
     ethr =  9.08E-08,  avg # of iterations =  2.9

     negative rho (up, down):  5.527E-02 0.000E+00

     total cpu time spent up to now is        4.7 secs

     total energy              =    -515.61358955 Ry
     estimated scf accuracy    <       0.00000940 Ry

     iteration #  7     ecut=    40.00 Ry     beta= 0.70
     Davidson diagonalization with overlap
     ethr =  1.47E-08,  avg # of iterations =  3.7

     negative rho (up, down):  5.520E-02 0.000E+00

     total cpu time spent up to now is        5.5 secs

     End of self-consistent calculation

          k = 0.0000 0.0000 0.0000 (  5137 PWs)   bands (ev):

   -47.8871 -47.8861 -47.8860 -47.8860 -19.8219 -19.8219 -19.8219 -19.8098
   -19.8098 -19.8098 -19.8097 -19.8097 -19.8097 -19.8016 -19.8016 -19.8016
   -11.6429 -11.2575 -11.2575 -11.2575  -0.6448  -0.6448  -0.6448   0.4244
     0.4244   0.4244   0.4244   0.4244   0.4244   1.0239   1.0239   1.0239

          k =-0.0000-0.0000 0.2500 (  5161 PWs)   bands (ev):

   -47.8869 -47.8862 -47.8861 -47.8860 -19.8201 -19.8201 -19.8200 -19.8115
   -19.8115 -19.8109 -19.8108 -19.8086 -19.8086 -19.8057 -19.8028 -19.8028
   -11.5814 -11.3083 -11.2491 -11.2490  -0.5145  -0.5145  -0.5015   0.2343
     0.2343   0.3441   0.3441   0.5033   0.5033   0.6311   0.9259   0.9259

          k = 0.0000 0.0000-0.5000 (  5110 PWs)   bands (ev):

   -47.8866 -47.8865 -47.8861 -47.8860 -19.8158 -19.8158 -19.8158 -19.8158
   -19.8140 -19.8140 -19.8119 -19.8119 -19.8057 -19.8057 -19.8056 -19.8056
   -11.4395 -11.4395 -11.2406 -11.2405  -0.1689  -0.1689  -0.1689  -0.1689
    -0.0457  -0.0457   0.2666   0.2666   0.7051   0.7051   0.7051   0.7051

          k =-0.0000 0.2500 0.2500 (  5169 PWs)   bands (ev):

   -47.8868 -47.8862 -47.8861 -47.8861 -19.8207 -19.8206 -19.8184 -19.8167
   -19.8110 -19.8103 -19.8102 -19.8081 -19.8081 -19.8076 -19.8040 -19.8018
   -11.5267 -11.2911 -11.2911 -11.2491  -0.4764  -0.4764  -0.3892  -0.0964
     0.2654   0.3243   0.3244   0.4906   0.4906   0.5258   0.8115   0.9535

          k = 0.0000 0.2500-0.5000 (  5166 PWs)   bands (ev):

   -47.8865 -47.8865 -47.8861 -47.8861 -19.8204 -19.8204 -19.8180 -19.8180
   -19.8143 -19.8143 -19.8072 -19.8071 -19.8071 -19.8071 -19.8039 -19.8039
   -11.4026 -11.4026 -11.2615 -11.2615  -0.3711  -0.3711  -0.2268  -0.2268
    -0.0584  -0.0584   0.5249   0.5249   0.5559   0.5559   0.7702   0.7702

          k = 0.0000-0.5000-0.5000 (  5216 PWs)   bands (ev):

   -47.8864 -47.8863 -47.8863 -47.8863 -19.8221 -19.8221 -19.8220 -19.8220
   -19.8108 -19.8107 -19.8107 -19.8107 -19.8038 -19.8038 -19.8037 -19.8037
   -11.3240 -11.3240 -11.3240 -11.3240  -0.4359  -0.4359  -0.4359  -0.4359
     0.2299   0.2299   0.2299   0.2299   0.7552   0.7552   0.7552   0.7552

          k = 0.2500 0.2500 0.2500 (  5166 PWs)   bands (ev):

   -47.8867 -47.8862 -47.8861 -47.8861 -19.8232 -19.8231 -19.8231 -19.8165
   -19.8102 -19.8101 -19.8101 -19.8068 -19.8068 -19.8067 -19.8027 -19.8027
   -11.4791 -11.2823 -11.2822 -11.2822  -0.5533  -0.5533  -0.5533  -0.0775
     0.2544   0.2544   0.2544   0.5842   0.5842   0.5842   0.8863   0.8863

          k = 0.2500 0.2500-0.5000 (  5128 PWs)   bands (ev):

   -47.8865 -47.8864 -47.8862 -47.8861 -19.8253 -19.8253 -19.8228 -19.8228
   -19.8098 -19.8097 -19.8060 -19.8059 -19.8047 -19.8047 -19.8045 -19.8045
   -11.3734 -11.3734 -11.2733 -11.2733  -0.6349  -0.6349  -0.4774  -0.4774
     0.2566   0.2566   0.6089   0.6089   0.6904   0.6904   0.7308   0.7308

          k = 0.2500-0.5000-0.5000 (  5140 PWs)   bands (ev):

   -47.8864 -47.8863 -47.8863 -47.8863 -19.8274 -19.8274 -19.8274 -19.8273
   -19.8065 -19.8064 -19.8064 -19.8064 -19.8038 -19.8038 -19.8037 -19.8037
   -11.3148 -11.3147 -11.3147 -11.3147  -0.7224  -0.7224  -0.7224  -0.7223
     0.5424   0.5425   0.5425   0.5425   0.7561   0.7561   0.7561   0.7561

          k =-0.5000-0.5000-0.5000 (  5232 PWs)   bands (ev):

   -47.8864 -47.8863 -47.8863 -47.8863 -19.8311 -19.8311 -19.8311 -19.8311
   -19.8038 -19.8038 -19.8038 -19.8037 -19.8037 -19.8037 -19.8037 -19.8037
   -11.3055 -11.3054 -11.3054 -11.3054  -0.9094  -0.9094  -0.9094  -0.9093
     0.7570   0.7570   0.7570   0.7570   0.7570   0.7570   0.7570   0.7570

     highest occupied level (ev):     1.0239

!    total energy              =    -515.61359215 Ry
     estimated scf accuracy    <       0.00000044 Ry

     The total energy is the sum of the following terms:
     one-electron contribution =    -326.05871591 Ry
     hartree contribution      =     181.59247728 Ry
     xc contribution           =     -95.62037271 Ry
     ewald contribution        =    -275.52698080 Ry

     convergence has been achieved in   7 iterations

     Writing all to output data dir ./tmp/NaCl.save/ :
     XML data file, charge density, pseudopotentials, collected wavefunctions

     init_run     :      0.31s CPU      0.34s WALL (       1 calls)
     electrons    :      4.62s CPU      5.03s WALL (       1 calls)

     Called by init_run:
     wfcinit      :      0.17s CPU      0.18s WALL (       1 calls)
     potinit      :      0.02s CPU      0.02s WALL (       1 calls)
     hinit0       :      0.05s CPU      0.06s WALL (       1 calls)

     Called by electrons:
     c_bands      :      3.21s CPU      3.49s WALL (       8 calls)
     sum_band     :      0.97s CPU      1.06s WALL (       8 calls)
     v_of_rho     :      0.12s CPU      0.12s WALL (       8 calls)
     newd         :      0.37s CPU      0.41s WALL (       8 calls)
     mix_rho      :      0.01s CPU      0.01s WALL (       8 calls)

     Called by c_bands:
     init_us_2    :      0.07s CPU      0.07s WALL (     170 calls)
     cegterg      :      3.04s CPU      3.31s WALL (      80 calls)

     Called by *egterg:
     cdiaghg      :      0.15s CPU      0.16s WALL (     254 calls)
     h_psi        :      2.44s CPU      2.61s WALL (     274 calls)
     s_psi        :      0.18s CPU      0.21s WALL (     274 calls)
     g_psi        :      0.00s CPU      0.00s WALL (     184 calls)

     Called by h_psi:
     h_psi:calbec :      0.28s CPU      0.33s WALL (     274 calls)
     vloc_psi     :      1.95s CPU      2.03s WALL (     274 calls)
     add_vuspsi   :      0.20s CPU      0.24s WALL (     274 calls)

     General routines
     calbec       :      0.37s CPU      0.44s WALL (     354 calls)
     fft          :      0.08s CPU      0.08s WALL (     103 calls)
     ffts         :      0.00s CPU      0.00s WALL (      16 calls)
     fftw         :      1.92s CPU      1.94s WALL (   16110 calls)
     interpolate  :      0.01s CPU      0.01s WALL (       8 calls)

     Parallel routines

     PWSCF        :      5.02s CPU      5.53s WALL


   This run was terminated on:  15:50:12  23Sep2024            

=------------------------------------------------------------------------------=
   JOB DONE.
=------------------------------------------------------------------------------=
